
Host: hpc3-19-01

Timers On : Thu Oct  7 14:20:30 2021
Timers Off: Thu Oct  7 14:20:32 2021

Wall Time:        2.51 seconds

                                                       Time (seconds)
Module                                       User      System        Wall        Calls

--------------------------------------------------------------------------------------

**************************************************************************************

Host: hpc3-19-01

Timers On : Thu Oct  7 14:20:42 2021
Timers Off: Thu Oct  7 14:20:43 2021

Wall Time:        0.69 seconds

                                                       Time (seconds)
Module                                       User      System        Wall        Calls

--------------------------------------------------------------------------------------

**************************************************************************************

Host: hpc3-19-01

Timers On : Thu Oct  7 14:20:50 2021
Timers Off: Thu Oct  7 14:20:51 2021

Wall Time:        0.52 seconds

                                                       Time (seconds)
Module                                       User      System        Wall        Calls

--------------------------------------------------------------------------------------

**************************************************************************************

Host: hpc3-19-01

Timers On : Thu Oct  7 14:21:08 2021
Timers Off: Thu Oct  7 14:21:09 2021

Wall Time:        0.51 seconds

                                                       Time (seconds)
Module                                       User      System        Wall        Calls

--------------------------------------------------------------------------------------

**************************************************************************************

Host: hpc3-19-01

Timers On : Thu Oct  7 14:21:28 2021
Timers Off: Thu Oct  7 14:21:29 2021

Wall Time:        0.56 seconds

                                                       Time (seconds)
Module                                       User      System        Wall        Calls

--------------------------------------------------------------------------------------

**************************************************************************************

Host: hpc3-19-01

Timers On : Thu Oct  7 14:22:11 2021
Timers Off: Thu Oct  7 14:22:12 2021

Wall Time:        0.52 seconds

                                                       Time (seconds)
Module                                       User      System        Wall        Calls

--------------------------------------------------------------------------------------

**************************************************************************************

Host: hpc3-19-01

Timers On : Thu Oct  7 14:22:28 2021
Timers Off: Thu Oct  7 14:22:28 2021

Wall Time:        0.56 seconds

                                                       Time (seconds)
Module                                       User      System        Wall        Calls

--------------------------------------------------------------------------------------

**************************************************************************************

Host: hpc3-19-01

Timers On : Thu Oct  7 14:22:43 2021
Timers Off: Thu Oct  7 14:22:44 2021

Wall Time:        0.56 seconds

                                                       Time (seconds)
Module                                       User      System        Wall        Calls

--------------------------------------------------------------------------------------

**************************************************************************************

Host: hpc3-19-01

Timers On : Thu Oct  7 14:22:57 2021
Timers Off: Thu Oct  7 14:22:58 2021

Wall Time:        0.48 seconds

                                                       Time (seconds)
Module                                       User      System        Wall        Calls

--------------------------------------------------------------------------------------

**************************************************************************************

Host: hpc3-19-01

Timers On : Thu Oct  7 14:23:12 2021
Timers Off: Thu Oct  7 14:23:13 2021

Wall Time:        0.45 seconds

                                                       Time (seconds)
Module                                       User      System        Wall        Calls

--------------------------------------------------------------------------------------

**************************************************************************************

Host: hpc3-19-03

Timers On : Thu Oct  7 17:11:28 2021
Timers Off: Thu Oct  7 17:11:29 2021

Wall Time:        1.14 seconds

                                                       Time (seconds)
Module                                       User      System        Wall        Calls

--------------------------------------------------------------------------------------

**************************************************************************************

Host: hpc3-19-03

Timers On : Thu Oct  7 17:11:56 2021
Timers Off: Thu Oct  7 17:11:56 2021

Wall Time:        0.55 seconds

                                                       Time (seconds)
Module                                       User      System        Wall        Calls

--------------------------------------------------------------------------------------

**************************************************************************************

Host: hpc3-18-02

Timers On : Thu Oct  7 18:46:04 2021
Timers Off: Thu Oct  7 18:46:05 2021

Wall Time:        1.20 seconds

                                                       Time (seconds)
Module                                       User      System        Wall        Calls

--------------------------------------------------------------------------------------

**************************************************************************************

Host: hpc3-18-02

Timers On : Thu Oct  7 18:46:30 2021
Timers Off: Thu Oct  7 18:46:30 2021

Wall Time:        0.66 seconds

                                                       Time (seconds)
Module                                       User      System        Wall        Calls

--------------------------------------------------------------------------------------

**************************************************************************************

Host: hpc3-18-02

Timers On : Thu Oct  7 18:48:18 2021
Timers Off: Thu Oct  7 18:48:19 2021

Wall Time:        0.62 seconds

                                                       Time (seconds)
Module                                       User      System        Wall        Calls

--------------------------------------------------------------------------------------

**************************************************************************************

Host: hpc3-18-02

Timers On : Thu Oct  7 18:48:55 2021
Timers Off: Thu Oct  7 18:48:56 2021

Wall Time:        0.61 seconds

                                                       Time (seconds)
Module                                       User      System        Wall        Calls

--------------------------------------------------------------------------------------

**************************************************************************************

Host: hpc3-18-02

Timers On : Thu Oct  7 18:50:15 2021
Timers Off: Thu Oct  7 18:50:15 2021

Wall Time:        0.49 seconds

                                                       Time (seconds)
Module                                       User      System        Wall        Calls

--------------------------------------------------------------------------------------

**************************************************************************************

Host: hpc3-18-02

Timers On : Thu Oct  7 18:50:55 2021
Timers Off: Thu Oct  7 18:50:56 2021

Wall Time:        0.57 seconds

                                                       Time (seconds)
Module                                       User      System        Wall        Calls

--------------------------------------------------------------------------------------

**************************************************************************************

Host: hpc3-18-02

Timers On : Thu Oct  7 18:52:12 2021
Timers Off: Thu Oct  7 18:52:12 2021

Wall Time:        0.54 seconds

                                                       Time (seconds)
Module                                       User      System        Wall        Calls

--------------------------------------------------------------------------------------

**************************************************************************************

Host: hpc3-18-02

Timers On : Thu Oct  7 18:53:26 2021
Timers Off: Thu Oct  7 18:53:26 2021

Wall Time:        0.54 seconds

                                                       Time (seconds)
Module                                       User      System        Wall        Calls

--------------------------------------------------------------------------------------

**************************************************************************************

Host: hpc3-18-02

Timers On : Thu Oct  7 19:48:59 2021
Timers Off: Thu Oct  7 19:49:00 2021

Wall Time:        1.14 seconds

                                                       Time (seconds)
Module                                       User      System        Wall        Calls

--------------------------------------------------------------------------------------

**************************************************************************************

Host: hpc3-18-02

Timers On : Thu Oct  7 19:50:10 2021
Timers Off: Thu Oct  7 19:50:11 2021

Wall Time:        0.54 seconds

                                                       Time (seconds)
Module                                       User      System        Wall        Calls

--------------------------------------------------------------------------------------

**************************************************************************************

Host: hpc3-19-18

Timers On : Thu Oct  7 20:15:52 2021
Timers Off: Thu Oct  7 20:15:53 2021

Wall Time:        0.94 seconds

                                                       Time (seconds)
Module                                       User      System        Wall        Calls

--------------------------------------------------------------------------------------

**************************************************************************************

Host: hpc3-19-18

Timers On : Thu Oct  7 20:16:53 2021
Timers Off: Thu Oct  7 20:16:54 2021

Wall Time:        0.61 seconds

                                                       Time (seconds)
Module                                       User      System        Wall        Calls

--------------------------------------------------------------------------------------

**************************************************************************************

Host: hpc3-18-01

Timers On : Thu Oct  7 21:25:19 2021
Timers Off: Thu Oct  7 21:25:20 2021

Wall Time:        1.05 seconds

                                                       Time (seconds)
Module                                       User      System        Wall        Calls

--------------------------------------------------------------------------------------

**************************************************************************************

Host: hpc3-18-01

Timers On : Thu Oct  7 21:26:35 2021
Timers Off: Thu Oct  7 21:26:36 2021

Wall Time:        0.47 seconds

                                                       Time (seconds)
Module                                       User      System        Wall        Calls

--------------------------------------------------------------------------------------

**************************************************************************************

Host: hpc3-18-02

Timers On : Thu Oct  7 23:00:53 2021
Timers Off: Thu Oct  7 23:00:53 2021

Wall Time:        0.60 seconds

                                                       Time (seconds)
Module                                       User      System        Wall        Calls

--------------------------------------------------------------------------------------

**************************************************************************************

Host: hpc3-18-02

Timers On : Thu Oct  7 23:02:01 2021
Timers Off: Thu Oct  7 23:02:02 2021

Wall Time:        0.51 seconds

                                                       Time (seconds)
Module                                       User      System        Wall        Calls

--------------------------------------------------------------------------------------

**************************************************************************************

Host: hpc3-19-18

Timers On : Thu Oct  7 23:13:08 2021
Timers Off: Thu Oct  7 23:13:08 2021

Wall Time:        0.54 seconds

                                                       Time (seconds)
Module                                       User      System        Wall        Calls

--------------------------------------------------------------------------------------

**************************************************************************************

Host: hpc3-19-18

Timers On : Thu Oct  7 23:14:07 2021
Timers Off: Thu Oct  7 23:14:08 2021

Wall Time:        0.56 seconds

                                                       Time (seconds)
Module                                       User      System        Wall        Calls

--------------------------------------------------------------------------------------

**************************************************************************************

Host: hpc3-19-05

Timers On : Thu Oct  7 23:31:14 2021
Timers Off: Thu Oct  7 23:31:15 2021

Wall Time:        1.08 seconds

                                                       Time (seconds)
Module                                       User      System        Wall        Calls

--------------------------------------------------------------------------------------

**************************************************************************************

Host: hpc3-19-05

Timers On : Thu Oct  7 23:32:28 2021
Timers Off: Thu Oct  7 23:32:28 2021

Wall Time:        0.47 seconds

                                                       Time (seconds)
Module                                       User      System        Wall        Calls

--------------------------------------------------------------------------------------

**************************************************************************************

Host: hpc3-19-02

Timers On : Thu Oct  7 23:49:39 2021
Timers Off: Thu Oct  7 23:49:40 2021

Wall Time:        1.18 seconds

                                                       Time (seconds)
Module                                       User      System        Wall        Calls

--------------------------------------------------------------------------------------

**************************************************************************************

Host: hpc3-19-02

Timers On : Thu Oct  7 23:50:51 2021
Timers Off: Thu Oct  7 23:50:51 2021

Wall Time:        0.61 seconds

                                                       Time (seconds)
Module                                       User      System        Wall        Calls

--------------------------------------------------------------------------------------

**************************************************************************************
